HEADER
"PSFversion" "1.00"
"A<3>v" "a<3>v"
"A<2>v" "a<2>v"
"A<1>v" "a<1>v"
"A<0>v" "a<0>v"
"B<3>v" "b<3>v"
"B<2>v" "b<2>v"
"B<1>v" "b<1>v"
"B<0>v" "b<0>v"
"CIv" "civ"
"S<3>v" "s<3>v"
"S<2>v" "s<2>v"
"S<1>v" "s<1>v"
"S<0>v" "s<0>v"
"CI_1v" "ci_1v"
"CI_2v" "ci_2v"
"CI_3v" "ci_3v"
"COv" "cov"
