HEADER
"PSFversion" "1.00"
"Av" "av"
"Bv" "bv"
"Sv" "sv"
"ZNv" "znv"
"Zv" "zv"
