HEADER
"PSFversion" "1.00"
"Av" "av"
"Bv" "bv"
"Zv" "zv"
