HEADER
"PSFversion" "1.00"
"A1v" "a1v"
"A2v" "a2v"
"A3v" "a3v"
"A4v" "a4v"
"ZNv" "znv"
