HEADER
"PSFversion" "1.00"
"__NEXT_FILE__" "ALU_NAND_CELL_XOR"
