HEADER
"PSFversion" "1.00"
"ARITMETIC_OUT<15>v" "aritmetic_out<15>v"
"ARITMETIC_OUT<14>v" "aritmetic_out<14>v"
"ARITMETIC_OUT<13>v" "aritmetic_out<13>v"
"ARITMETIC_OUT<12>v" "aritmetic_out<12>v"
"ARITMETIC_OUT<11>v" "aritmetic_out<11>v"
"ARITMETIC_OUT<10>v" "aritmetic_out<10>v"
"ARITMETIC_OUT<9>v" "aritmetic_out<9>v"
"ARITMETIC_OUT<8>v" "aritmetic_out<8>v"
"ARITMETIC_OUT<7>v" "aritmetic_out<7>v"
"ARITMETIC_OUT<6>v" "aritmetic_out<6>v"
"ARITMETIC_OUT<5>v" "aritmetic_out<5>v"
"ARITMETIC_OUT<4>v" "aritmetic_out<4>v"
"ARITMETIC_OUT<3>v" "aritmetic_out<3>v"
"ARITMETIC_OUT<2>v" "aritmetic_out<2>v"
"ARITMETIC_OUT<1>v" "aritmetic_out<1>v"
"ARITMETIC_OUT<0>v" "aritmetic_out<0>v"
"LOGIC_OUT<15>v" "logic_out<15>v"
"LOGIC_OUT<14>v" "logic_out<14>v"
"LOGIC_OUT<13>v" "logic_out<13>v"
"LOGIC_OUT<12>v" "logic_out<12>v"
"LOGIC_OUT<11>v" "logic_out<11>v"
"LOGIC_OUT<10>v" "logic_out<10>v"
"LOGIC_OUT<9>v" "logic_out<9>v"
"LOGIC_OUT<8>v" "logic_out<8>v"
"LOGIC_OUT<7>v" "logic_out<7>v"
"LOGIC_OUT<6>v" "logic_out<6>v"
"LOGIC_OUT<5>v" "logic_out<5>v"
"LOGIC_OUT<4>v" "logic_out<4>v"
"LOGIC_OUT<3>v" "logic_out<3>v"
"LOGIC_OUT<2>v" "logic_out<2>v"
"LOGIC_OUT<1>v" "logic_out<1>v"
"LOGIC_OUT<0>v" "logic_out<0>v"
"COv" "cov"
"C0Nv" "c0nv"
"ARITMETIC_OUT_15_Nv" "aritmetic_out_15_nv"
"A_tempv" "a_tempv"
"A_temp_Nv" "a_temp_nv"
"op1_15_Nv" "op1_15_nv"
"vss!v" "_gnet1v"
"vdd!v" "_gnet0v"
"VSS!v" "vss!v"
"VDD!v" "vdd!v"
