HEADER
"PSFversion" "1.00"
"S<15>v" "s<15>v"
"S<14>v" "s<14>v"
"S<13>v" "s<13>v"
"S<12>v" "s<12>v"
"S<11>v" "s<11>v"
"S<10>v" "s<10>v"
"S<9>v" "s<9>v"
"S<8>v" "s<8>v"
"S<7>v" "s<7>v"
"S<6>v" "s<6>v"
"S<5>v" "s<5>v"
"S<4>v" "s<4>v"
"S<3>v" "s<3>v"
"S<2>v" "s<2>v"
"S<1>v" "s<1>v"
"S<0>v" "s<0>v"
"COv" "cov"
"CIv" "civ"
"A<15>v" "a<15>v"
"A<14>v" "a<14>v"
"A<13>v" "a<13>v"
"A<12>v" "a<12>v"
"A<11>v" "a<11>v"
"A<10>v" "a<10>v"
"A<9>v" "a<9>v"
"A<8>v" "a<8>v"
"A<7>v" "a<7>v"
"A<6>v" "a<6>v"
"A<5>v" "a<5>v"
"A<4>v" "a<4>v"
"A<3>v" "a<3>v"
"A<2>v" "a<2>v"
"A<1>v" "a<1>v"
"A<0>v" "a<0>v"
"B<15>v" "b<15>v"
"B<14>v" "b<14>v"
"B<13>v" "b<13>v"
"B<12>v" "b<12>v"
"B<11>v" "b<11>v"
"B<10>v" "b<10>v"
"B<9>v" "b<9>v"
"B<8>v" "b<8>v"
"B<7>v" "b<7>v"
"B<6>v" "b<6>v"
"B<5>v" "b<5>v"
"B<4>v" "b<4>v"
"B<3>v" "b<3>v"
"B<2>v" "b<2>v"
"B<1>v" "b<1>v"
"B<0>v" "b<0>v"
"C_0v" "c_0v"
"C_1v" "c_1v"
"C_2v" "c_2v"
