HEADER
"PSFversion" "1.00"
"COv" "cov"
"CIv" "civ"
"A<3>v" "a<3>v"
"A<2>v" "a<2>v"
"A<1>v" "a<1>v"
"A<0>v" "a<0>v"
"B<3>v" "b<3>v"
"B<2>v" "b<2>v"
"B<1>v" "b<1>v"
"B<0>v" "b<0>v"
"S<3>v" "s<3>v"
"S<2>v" "s<2>v"
"S<1>v" "s<1>v"
"S<0>v" "s<0>v"
"S_0<3>v" "s_0<3>v"
"S_0<2>v" "s_0<2>v"
"S_0<1>v" "s_0<1>v"
"S_0<0>v" "s_0<0>v"
"S_1<3>v" "s_1<3>v"
"S_1<2>v" "s_1<2>v"
"S_1<1>v" "s_1<1>v"
"S_1<0>v" "s_1<0>v"
"C_0v" "c_0v"
"C_1v" "c_1v"
