HEADER
"PSFversion" "1.00"
"M_instance_284v" "m_instance_284v"
"M_instance_280v" "m_instance_280v"
"M_instance_275v" "m_instance_275v"
"M_instance_251v" "m_instance_251v"
"M_instance_246v" "m_instance_246v"
"M_instance_239v" "m_instance_239v"
"M_instance_315v" "m_instance_315v"
"M_instance_269v" "m_instance_269v"
"M_instance_263v" "m_instance_263v"
"M_instance_257v" "m_instance_257v"
"M_instance_309v" "m_instance_309v"
"M_instance_297v" "m_instance_297v"
"M_instance_303v" "m_instance_303v"
"M_instance_290v" "m_instance_290v"
"M_instance_203v" "m_instance_203v"
"M_instance_284n M_instance_280n M_instance_275n M_instance_251n M_instance_246n M_instance_239n M_instance_315n M_instance_269n M_instance_263n M_instance_257n M_instance_309n M_instance_297n M_instance_303n M_instance_290n" "NCSU_Devices_FreePDK45_PMOS_VTL_hspiceD"
"M_instance_199v" "m_instance_199v"
"M_instance_194v" "m_instance_194v"
"M_instance_159v" "m_instance_159v"
"M_instance_233v" "m_instance_233v"
"M_instance_166v" "m_instance_166v"
"M_instance_170v" "m_instance_170v"
"M_instance_176v" "m_instance_176v"
"M_instance_209v" "m_instance_209v"
"M_instance_215v" "m_instance_215v"
"M_instance_188v" "m_instance_188v"
"M_instance_182v" "m_instance_182v"
"M_instance_227v" "m_instance_227v"
"M_instance_221v" "m_instance_221v"
"M_instance_203n M_instance_199n M_instance_194n M_instance_159n M_instance_233n M_instance_166n M_instance_170n M_instance_176n M_instance_209n M_instance_215n M_instance_188n M_instance_182n M_instance_227n M_instance_221n" "NCSU_Devices_FreePDK45_NMOS_VTL_hspiceD"
"Av" "(FUNCTION (plus (root \"M_instance_170/G\") (root \"M_instance_251/G\") (root \"M_instance_275/G\") (root \"M_instance_194/G\") (root \"M_instance_269/G\") (root \"M_instance_221/G\") (root \"M_instance_188/G\") (root \"M_instance_303/G\")))v"
"Bv" "(FUNCTION (plus (root \"M_instance_166/G\") (root \"M_instance_246/G\") (root \"M_instance_280/G\") (root \"M_instance_199/G\") (root \"M_instance_309/G\") (root \"M_instance_263/G\") (root \"M_instance_227/G\") (root \"M_instance_182/G\")))v"
"CIv" "(FUNCTION (plus (root \"M_instance_176/G\") (root \"M_instance_257/G\") (root \"M_instance_203/G\") (root \"M_instance_284/G\") (root \"M_instance_215/G\") (root \"M_instance_297/G\")))v"
"COv" "(FUNCTION (plus (root \"M_instance_159/D\") (root \"M_instance_239/D\")))v"
"Sv" "(FUNCTION (plus (root \"M_instance_233/D\") (root \"M_instance_315/D\")))v"
"VDD!v" "(FUNCTION (plus (root \"M_instance_290/B\") (root \"M_instance_257/B\") (root \"M_instance_284/B\") (root \"M_instance_246/D\") (root \"M_instance_246/B\") (root \"M_instance_251/B\") (root \"M_instance_275/D\") (root \"M_instance_275/B\") (root \"M_instance_280/B\") (root \"M_instance_239/B\") (root \"M_instance_239/S\") (root \"M_instance_269/B\") (root \"M_instance_269/S\") (root \"M_instance_309/B\") (root \"M_instance_309/S\") (root \"M_instance_263/D\") (root \"M_instance_263/B\") (root \"M_instance_315/B\") (root \"M_instance_315/S\") (root \"M_instance_303/B\") (root \"M_instance_303/S\") (root \"M_instance_297/D\") (root \"M_instance_297/B\")))v"
"VSS!v" "(FUNCTION (plus (root \"M_instance_176/B\") (root \"M_instance_209/B\") (root \"M_instance_203/B\") (root \"M_instance_170/B\") (root \"M_instance_166/B\") (root \"M_instance_166/D\") (root \"M_instance_194/B\") (root \"M_instance_194/D\") (root \"M_instance_199/B\") (root \"M_instance_159/S\") (root \"M_instance_159/B\") (root \"M_instance_233/S\") (root \"M_instance_233/B\") (root \"M_instance_221/S\") (root \"M_instance_221/B\") (root \"M_instance_227/S\") (root \"M_instance_227/B\") (root \"M_instance_182/B\") (root \"M_instance_182/D\") (root \"M_instance_188/S\") (root \"M_instance_188/B\") (root \"M_instance_215/B\") (root \"M_instance_215/D\")))v"
