HEADER
"PSFversion" "1.00"
"S<1>v" "s<1>v"
"S<0>v" "s<0>v"
"LOGIC_OUT<15>v" "logic_out<15>v"
"LOGIC_OUT<14>v" "logic_out<14>v"
"LOGIC_OUT<13>v" "logic_out<13>v"
"LOGIC_OUT<12>v" "logic_out<12>v"
"LOGIC_OUT<11>v" "logic_out<11>v"
"LOGIC_OUT<10>v" "logic_out<10>v"
"LOGIC_OUT<9>v" "logic_out<9>v"
"LOGIC_OUT<8>v" "logic_out<8>v"
"LOGIC_OUT<7>v" "logic_out<7>v"
"LOGIC_OUT<6>v" "logic_out<6>v"
"LOGIC_OUT<5>v" "logic_out<5>v"
"LOGIC_OUT<4>v" "logic_out<4>v"
"LOGIC_OUT<3>v" "logic_out<3>v"
"LOGIC_OUT<2>v" "logic_out<2>v"
"LOGIC_OUT<1>v" "logic_out<1>v"
"LOGIC_OUT<0>v" "logic_out<0>v"
"A<15>v" "a<15>v"
"A<14>v" "a<14>v"
"A<13>v" "a<13>v"
"A<12>v" "a<12>v"
"A<11>v" "a<11>v"
"A<10>v" "a<10>v"
"A<9>v" "a<9>v"
"A<8>v" "a<8>v"
"A<7>v" "a<7>v"
"A<6>v" "a<6>v"
"A<5>v" "a<5>v"
"A<4>v" "a<4>v"
"A<3>v" "a<3>v"
"A<2>v" "a<2>v"
"A<1>v" "a<1>v"
"A<0>v" "a<0>v"
"B<15>v" "b<15>v"
"B<14>v" "b<14>v"
"B<13>v" "b<13>v"
"B<12>v" "b<12>v"
"B<11>v" "b<11>v"
"B<10>v" "b<10>v"
"B<9>v" "b<9>v"
"B<8>v" "b<8>v"
"B<7>v" "b<7>v"
"B<6>v" "b<6>v"
"B<5>v" "b<5>v"
"B<4>v" "b<4>v"
"B<3>v" "b<3>v"
"B<2>v" "b<2>v"
"B<1>v" "b<1>v"
"B<0>v" "b<0>v"
"NAND<15>v" "nand<15>v"
"NAND<14>v" "nand<14>v"
"NAND<13>v" "nand<13>v"
"NAND<12>v" "nand<12>v"
"NAND<11>v" "nand<11>v"
"NAND<10>v" "nand<10>v"
"NAND<9>v" "nand<9>v"
"NAND<8>v" "nand<8>v"
"NAND<7>v" "nand<7>v"
"NAND<6>v" "nand<6>v"
"NAND<5>v" "nand<5>v"
"NAND<4>v" "nand<4>v"
"NAND<3>v" "nand<3>v"
"NAND<2>v" "nand<2>v"
"NAND<1>v" "nand<1>v"
"NAND<0>v" "nand<0>v"
"NOR<15>v" "nor<15>v"
"NOR<14>v" "nor<14>v"
"NOR<13>v" "nor<13>v"
"NOR<12>v" "nor<12>v"
"NOR<11>v" "nor<11>v"
"NOR<10>v" "nor<10>v"
"NOR<9>v" "nor<9>v"
"NOR<8>v" "nor<8>v"
"NOR<7>v" "nor<7>v"
"NOR<6>v" "nor<6>v"
"NOR<5>v" "nor<5>v"
"NOR<4>v" "nor<4>v"
"NOR<3>v" "nor<3>v"
"NOR<2>v" "nor<2>v"
"NOR<1>v" "nor<1>v"
"NOR<0>v" "nor<0>v"
"XNOR<15>v" "xnor<15>v"
"XNOR<14>v" "xnor<14>v"
"XNOR<13>v" "xnor<13>v"
"XNOR<12>v" "xnor<12>v"
"XNOR<11>v" "xnor<11>v"
"XNOR<10>v" "xnor<10>v"
"XNOR<9>v" "xnor<9>v"
"XNOR<8>v" "xnor<8>v"
"XNOR<7>v" "xnor<7>v"
"XNOR<6>v" "xnor<6>v"
"XNOR<5>v" "xnor<5>v"
"XNOR<4>v" "xnor<4>v"
"XNOR<3>v" "xnor<3>v"
"XNOR<2>v" "xnor<2>v"
"XNOR<1>v" "xnor<1>v"
"XNOR<0>v" "xnor<0>v"
