HEADER
"PSFversion" "1.00"
"Z_negv" "z_negv"
"Av" "av"
"Bv" "bv"
"Sv" "sv"
"Zv" "zv"
