HEADER
"PSFversion" "1.00"
"M_i_4v" "m_i_4v"
"M_i_5v" "m_i_5v"
"M_i_2v" "m_i_2v"
"M_i_3v" "m_i_3v"
"M_i_0v" "m_i_0v"
"M_i_10v" "m_i_10v"
"M_i_6v" "m_i_6v"
"M_i_4n M_i_5n M_i_2n M_i_3n M_i_0n M_i_10n" "NCSU_Devices_FreePDK45_NMOS_VTL_hspiceD"
"M_i_8v" "m_i_8v"
"M_i_9v" "m_i_9v"
"M_i_7v" "m_i_7v"
"M_i_1v" "m_i_1v"
"M_i_11v" "m_i_11v"
"M_i_6n M_i_8n M_i_9n M_i_7n M_i_1n M_i_11n" "NCSU_Devices_FreePDK45_PMOS_VTL_hspiceD"
"Av" "(FUNCTION (plus (root \"M_i_8/G\") (root \"M_i_4/G\")))v"
"Bv" "(FUNCTION (plus (root \"M_i_7/G\") (root \"M_i_3/G\")))v"
"Sv" "(FUNCTION (plus (root \"M_i_11/G\") (root \"M_i_10/G\") (root \"M_i_6/G\") (root \"M_i_2/G\")))v"
"Zv" "(FUNCTION (plus (root \"M_i_0/D\") (root \"M_i_1/D\")))v"
"VDD!v" "(FUNCTION (plus (root \"M_i_11/D\") (root \"M_i_11/B\") (root \"M_i_9/B\") (root \"M_i_7/D\") (root \"M_i_7/B\") (root \"M_i_6/B\") (root \"M_i_8/D\") (root \"M_i_8/B\") (root \"M_i_1/B\") (root \"M_i_1/S\")))v"
"VSS!v" "(FUNCTION (plus (root \"M_i_10/B\") (root \"M_i_10/D\") (root \"M_i_3/S\") (root \"M_i_3/B\") (root \"M_i_2/B\") (root \"M_i_5/B\") (root \"M_i_4/S\") (root \"M_i_4/B\") (root \"M_i_0/S\") (root \"M_i_0/B\")))v"
