HEADER
"PSFversion" "1.00"
"ZNv" "znv"
"A2v" "a2v"
"A1v" "a1v"
