HEADER
"PSFversion" "1.00"
"M_i_48v" "m_i_48v"
"M_i_53v" "m_i_53v"
"M_i_29v" "m_i_29v"
"M_i_36v" "m_i_36v"
"M_i_42v" "m_i_42v"
"M_i_0v" "m_i_0v"
"M_i_48n M_i_53n M_i_29n M_i_36n M_i_42n" "NCSU_Devices_FreePDK45_PMOS_VTL_hspiceD"
"M_i_5v" "m_i_5v"
"M_i_11v" "m_i_11v"
"M_i_17v" "m_i_17v"
"M_i_23v" "m_i_23v"
"M_i_0n M_i_5n M_i_11n M_i_17n M_i_23n" "NCSU_Devices_FreePDK45_NMOS_VTL_hspiceD"
"Av" "(FUNCTION (plus (root \"M_i_17/G\") (root \"M_i_0/G\") (root \"M_i_29/G\") (root \"M_i_48/G\")))v"
"Bv" "(FUNCTION (plus (root \"M_i_23/G\") (root \"M_i_5/G\") (root \"M_i_36/G\") (root \"M_i_53/G\")))v"
"ZNv" "(FUNCTION (plus (root \"M_i_23/S\") (root \"M_i_17/D\") (root \"M_i_48/S\") (root \"M_i_42/D\")))v"
"VDD!v" "(FUNCTION (plus (root \"M_i_36/D\") (root \"M_i_36/B\") (root \"M_i_29/B\") (root \"M_i_29/S\") (root \"M_i_53/D\") (root \"M_i_53/B\") (root \"M_i_48/B\") (root \"M_i_42/B\") (root \"M_i_42/S\")))v"
"VSS!v" "(FUNCTION (plus (root \"M_i_23/B\") (root \"M_i_17/B\") (root \"M_i_5/B\") (root \"M_i_5/D\") (root \"M_i_0/B\") (root \"M_i_11/S\") (root \"M_i_11/B\")))v"
