HEADER
"PSFversion" "1.00"
"M1v" "m1v"
"M0v" "m0v"
"M3v" "m3v"
"M1n M0n" "NCSU_Devices_FreePDK45_NMOS_VTL_hspiceD"
"M2v" "m2v"
"M3n M2n" "NCSU_Devices_FreePDK45_PMOS_VTL_hspiceD"
"Bv" "(FUNCTION (plus (root \"M3/G\") (root \"M2/D\") (root \"M1/G\")))v"
"Av" "(FUNCTION (plus (root \"M3/S\") (root \"M2/G\") (root \"M0/G\")))v"
"Zv" "(FUNCTION (plus (root \"M3/D\") (root \"M2/S\") (root \"M0/D\")))v"
