HEADER
"PSFversion" "1.00"
"ARITHMETIC_OUT<15>v" "arithmetic_out<15>v"
"ARITHMETIC_OUT<14>v" "arithmetic_out<14>v"
"ARITHMETIC_OUT<13>v" "arithmetic_out<13>v"
"ARITHMETIC_OUT<12>v" "arithmetic_out<12>v"
"ARITHMETIC_OUT<11>v" "arithmetic_out<11>v"
"ARITHMETIC_OUT<10>v" "arithmetic_out<10>v"
"ARITHMETIC_OUT<9>v" "arithmetic_out<9>v"
"ARITHMETIC_OUT<8>v" "arithmetic_out<8>v"
"ARITHMETIC_OUT<7>v" "arithmetic_out<7>v"
"ARITHMETIC_OUT<6>v" "arithmetic_out<6>v"
"ARITHMETIC_OUT<5>v" "arithmetic_out<5>v"
"ARITHMETIC_OUT<4>v" "arithmetic_out<4>v"
"ARITHMETIC_OUT<3>v" "arithmetic_out<3>v"
"ARITHMETIC_OUT<2>v" "arithmetic_out<2>v"
"ARITHMETIC_OUT<1>v" "arithmetic_out<1>v"
"ARITHMETIC_OUT<0>v" "arithmetic_out<0>v"
"LOGIC_OUT<15>v" "logic_out<15>v"
"LOGIC_OUT<14>v" "logic_out<14>v"
"LOGIC_OUT<13>v" "logic_out<13>v"
"LOGIC_OUT<12>v" "logic_out<12>v"
"LOGIC_OUT<11>v" "logic_out<11>v"
"LOGIC_OUT<10>v" "logic_out<10>v"
"LOGIC_OUT<9>v" "logic_out<9>v"
"LOGIC_OUT<8>v" "logic_out<8>v"
"LOGIC_OUT<7>v" "logic_out<7>v"
"LOGIC_OUT<6>v" "logic_out<6>v"
"LOGIC_OUT<5>v" "logic_out<5>v"
"LOGIC_OUT<4>v" "logic_out<4>v"
"LOGIC_OUT<3>v" "logic_out<3>v"
"LOGIC_OUT<2>v" "logic_out<2>v"
"LOGIC_OUT<1>v" "logic_out<1>v"
"LOGIC_OUT<0>v" "logic_out<0>v"
"VSS!v" "vss!v"
"VDD!v" "vdd!v"
