HEADER
"PSFversion" "1.00"
"__NEXT_FILE__" "OUT_MUX_BUF_16B"
