HEADER
"PSFversion" "1.00"
"Viv" "viv"
"Vov" "vov"
"gnd!v" "0v"
