HEADER
"PSFversion" "1.00"
"PLUSv" "v"
"MINUSv" "(FUNCTION minus(root(\"PLUS\")))v"
