HEADER
"PSFversion" "1.00"
"r0n" "analogLib_res_hspiceD"
"c1n" "analogLib_cap_hspiceD"
