HEADER
"PSFversion" "1.00"
"I3v" "xi3v"
"I4v" "xi4v"
"I3n" "RCA_4B"
"I6v" "xi6v"
"I5v" "xi5v"
"I4n I6n I5n" "CSA_4B"
