HEADER
"PSFversion" "1.00"
"CI_buf<3>v" "ci_buf<3>v"
"CIv" "civ"
"S<3>v" "s<3>v"
"S<2>v" "s<2>v"
"S<1>v" "s<1>v"
"S<0>v" "s<0>v"
"COv" "cov"
"S_0<2>v" "s_0<2>v"
"CI_buf<1>v" "ci_buf<1>v"
"S_0<1>v" "s_0<1>v"
"CI_buf<2>v" "ci_buf<2>v"
"CI_buf_S_COv" "ci_buf_s_cov"
"S_0<3>v" "s_0<3>v"
"S_0<0>v" "s_0<0>v"
"LOGIC_OUT_BUF<3>v" "logic_out_buf<3>v"
"LOGIC_OUT_BUF<2>v" "logic_out_buf<2>v"
"LOGIC_OUT_BUF<1>v" "logic_out_buf<1>v"
"LOGIC_OUT_BUF<0>v" "logic_out_buf<0>v"
"S_1<3>v" "s_1<3>v"
"S_1<0>v" "s_1<0>v"
"CO_0v" "co_0v"
"LOGIC_OUT<3>v" "logic_out<3>v"
"LOGIC_OUT<2>v" "logic_out<2>v"
"LOGIC_OUT<1>v" "logic_out<1>v"
"LOGIC_OUT<0>v" "logic_out<0>v"
"S_1<1>v" "s_1<1>v"
"S_1<2>v" "s_1<2>v"
"CO_1v" "co_1v"
