HEADER
"PSFversion" "1.00"
"S<3>v" "s<3>v"
"S<2>v" "s<2>v"
"S<1>v" "s<1>v"
"S<0>v" "s<0>v"
"COv" "cov"
"LOGIC_OUT_BUF<3>v" "logic_out_buf<3>v"
"LOGIC_OUT_BUF<2>v" "logic_out_buf<2>v"
"LOGIC_OUT_BUF<1>v" "logic_out_buf<1>v"
"LOGIC_OUT_BUF<0>v" "logic_out_buf<0>v"
"LOGIC_OUT<3>v" "logic_out<3>v"
"LOGIC_OUT<2>v" "logic_out<2>v"
"LOGIC_OUT<1>v" "logic_out<1>v"
"LOGIC_OUT<0>v" "logic_out<0>v"
