HEADER
"PSFversion" "1.00"
"COv" "cov"
"VDD!v" "vdd!v"
"VSS!v" "vss!v"
