HEADER
"PSFversion" "1.00"
"Z_negv" "z_negv"
"Zv" "zv"
"Av" "av"
