HEADER
"PSFversion" "1.00"
"I0v" "xi0v"
"I1v" "xi1v"
"I0n" "MUX2_X1"
"I1n" "INV_X1"
"Av" "(FUNCTION (plus (root \"I0/A\")))v"
"Bv" "(FUNCTION (plus (root \"I0/B\")))v"
"Sv" "(FUNCTION (plus (root \"I0/S\")))v"
"ZNv" "(FUNCTION (plus (root \"I1/ZN\")))v"
