HEADER
"PSFversion" "1.00"
"Dv" "dv"
"CKv" "ckv"
"Qv" "qv"
"QNv" "qnv"
