HEADER
"PSFversion" "1.00"
"NENv" "nenv"
"Av" "av"
"ENv" "env"
"Zv" "zv"
