HEADER
"PSFversion" "1.00"
"Z<1>v" "z<1>v"
"Z<0>v" "z<0>v"
"Dv" "dv"
"CKv" "ckv"
"EN<1>v" "en<1>v"
"EN<0>v" "en<0>v"
"VSS!v" "vss!v"
"VDD!v" "vdd!v"
