HEADER
"PSFversion" "1.00"
"I0v" "xi0v"
"I2v" "xi2v"
"I0n" "DFF_X1"
"I1v" "xi1v"
"I2n I1n" "TBUF_X1"
