HEADER
"PSFversion" "1.00"
"__NEXT_FILE__" "TDFF_X1_2"
