HEADER
"PSFversion" "1.00"
"CK_EN<12>v" "ck_en<12>v"
"CK_EN<11>v" "ck_en<11>v"
"CK_EN<10>v" "ck_en<10>v"
"CK_EN<9>v" "ck_en<9>v"
"CK_EN<8>v" "ck_en<8>v"
"CK_EN<7>v" "ck_en<7>v"
"CK_EN<6>v" "ck_en<6>v"
"CK_EN<5>v" "ck_en<5>v"
"CK_EN<4>v" "ck_en<4>v"
"CK_EN<3>v" "ck_en<3>v"
"CK_EN<2>v" "ck_en<2>v"
"CK_EN<1>v" "ck_en<1>v"
"CK_EN<0>v" "ck_en<0>v"
"CKv" "ckv"
"R0_d<12>v" "r0_d<12>v"
"R0_d<11>v" "r0_d<11>v"
"R0_d<10>v" "r0_d<10>v"
"R0_d<9>v" "r0_d<9>v"
"R0_d<8>v" "r0_d<8>v"
"R0_d<7>v" "r0_d<7>v"
"R0_d<6>v" "r0_d<6>v"
"R0_d<5>v" "r0_d<5>v"
"R0_d<4>v" "r0_d<4>v"
"R0_d<3>v" "r0_d<3>v"
"R0_d<2>v" "r0_d<2>v"
"R0_d<1>v" "r0_d<1>v"
"R0_d<0>v" "r0_d<0>v"
"R1_d<12>v" "r1_d<12>v"
"R1_d<11>v" "r1_d<11>v"
"R1_d<10>v" "r1_d<10>v"
"R1_d<9>v" "r1_d<9>v"
"R1_d<8>v" "r1_d<8>v"
"R1_d<7>v" "r1_d<7>v"
"R1_d<6>v" "r1_d<6>v"
"R1_d<5>v" "r1_d<5>v"
"R1_d<4>v" "r1_d<4>v"
"R1_d<3>v" "r1_d<3>v"
"R1_d<2>v" "r1_d<2>v"
"R1_d<1>v" "r1_d<1>v"
"R1_d<0>v" "r1_d<0>v"
"wr_data_B<15>v" "wr_data_b<15>v"
"wr_data_B<14>v" "wr_data_b<14>v"
"wr_data_B<13>v" "wr_data_b<13>v"
"wr_data_B<12>v" "wr_data_b<12>v"
"wr_data_B<11>v" "wr_data_b<11>v"
"wr_data_B<10>v" "wr_data_b<10>v"
"wr_data_B<9>v" "wr_data_b<9>v"
"wr_data_B<8>v" "wr_data_b<8>v"
"wr_data_B<7>v" "wr_data_b<7>v"
"wr_data_B<6>v" "wr_data_b<6>v"
"wr_data_B<5>v" "wr_data_b<5>v"
"wr_data_B<4>v" "wr_data_b<4>v"
"wr_data_B<3>v" "wr_data_b<3>v"
"wr_data_B<2>v" "wr_data_b<2>v"
"wr_data_B<1>v" "wr_data_b<1>v"
"wr_data_B<0>v" "wr_data_b<0>v"
"VSS!v" "vss!v"
"VDD!v" "vdd!v"
