HEADER
"PSFversion" "1.00"
"I12<15>v" "xi12<15>v"
"I12<14>v" "xi12<14>v"
"I12<13>v" "xi12<13>v"
"I12<12>v" "xi12<12>v"
"I12<11>v" "xi12<11>v"
"I12<10>v" "xi12<10>v"
"I12<9>v" "xi12<9>v"
"I12<8>v" "xi12<8>v"
"I12<7>v" "xi12<7>v"
"I12<6>v" "xi12<6>v"
"I12<5>v" "xi12<5>v"
"I12<4>v" "xi12<4>v"
"I12<3>v" "xi12<3>v"
"I12<2>v" "xi12<2>v"
"I12<1>v" "xi12<1>v"
"I12<0>v" "xi12<0>v"
"I11<15>v" "xi11<15>v"
"I12<15>n I12<14>n I12<13>n I12<12>n I12<11>n I12<10>n I12<9>n I12<8>n I12<7>n I12<6>n I12<5>n I12<4>n I12<3>n I12<2>n I12<1>n I12<0>n" "INV_X4"
"I11<14>v" "xi11<14>v"
"I11<13>v" "xi11<13>v"
"I11<12>v" "xi11<12>v"
"I11<11>v" "xi11<11>v"
"I11<10>v" "xi11<10>v"
"I11<9>v" "xi11<9>v"
"I11<8>v" "xi11<8>v"
"I11<7>v" "xi11<7>v"
"I11<6>v" "xi11<6>v"
"I11<5>v" "xi11<5>v"
"I11<4>v" "xi11<4>v"
"I11<3>v" "xi11<3>v"
"I11<2>v" "xi11<2>v"
"I11<1>v" "xi11<1>v"
"I11<0>v" "xi11<0>v"
"I6<15>v" "xi6<15>v"
"I11<15>n I11<14>n I11<13>n I11<12>n I11<11>n I11<10>n I11<9>n I11<8>n I11<7>n I11<6>n I11<5>n I11<4>n I11<3>n I11<2>n I11<1>n I11<0>n" "INV_X1"
"I6<14>v" "xi6<14>v"
"I6<13>v" "xi6<13>v"
"I6<12>v" "xi6<12>v"
"I6<11>v" "xi6<11>v"
"I6<10>v" "xi6<10>v"
"I6<9>v" "xi6<9>v"
"I6<8>v" "xi6<8>v"
"I6<7>v" "xi6<7>v"
"I6<6>v" "xi6<6>v"
"I6<5>v" "xi6<5>v"
"I6<4>v" "xi6<4>v"
"I6<3>v" "xi6<3>v"
"I6<2>v" "xi6<2>v"
"I6<1>v" "xi6<1>v"
"I6<0>v" "xi6<0>v"
"I45<15>v" "xi45<15>v"
"I6<15>n I6<14>n I6<13>n I6<12>n I6<11>n I6<10>n I6<9>n I6<8>n I6<7>n I6<6>n I6<5>n I6<4>n I6<3>n I6<2>n I6<1>n I6<0>n" "DLL_X1"
"I45<14>v" "xi45<14>v"
"I45<13>v" "xi45<13>v"
"I45<12>v" "xi45<12>v"
"I45<11>v" "xi45<11>v"
"I45<10>v" "xi45<10>v"
"I45<9>v" "xi45<9>v"
"I45<8>v" "xi45<8>v"
"I45<7>v" "xi45<7>v"
"I45<6>v" "xi45<6>v"
"I45<5>v" "xi45<5>v"
"I45<4>v" "xi45<4>v"
"I45<3>v" "xi45<3>v"
"I45<2>v" "xi45<2>v"
"I45<1>v" "xi45<1>v"
"I45<0>v" "xi45<0>v"
"I44<15>v" "xi44<15>v"
"I44<14>v" "xi44<14>v"
"I44<13>v" "xi44<13>v"
"I44<12>v" "xi44<12>v"
"I44<11>v" "xi44<11>v"
"I44<10>v" "xi44<10>v"
"I44<9>v" "xi44<9>v"
"I44<8>v" "xi44<8>v"
"I44<7>v" "xi44<7>v"
"I44<6>v" "xi44<6>v"
"I44<5>v" "xi44<5>v"
"I44<4>v" "xi44<4>v"
"I44<3>v" "xi44<3>v"
"I44<2>v" "xi44<2>v"
"I44<1>v" "xi44<1>v"
"I44<0>v" "xi44<0>v"
"I43<15>v" "xi43<15>v"
"I43<14>v" "xi43<14>v"
"I43<13>v" "xi43<13>v"
"I43<12>v" "xi43<12>v"
"I43<11>v" "xi43<11>v"
"I43<10>v" "xi43<10>v"
"I43<9>v" "xi43<9>v"
"I43<8>v" "xi43<8>v"
"I43<7>v" "xi43<7>v"
"I43<6>v" "xi43<6>v"
"I43<5>v" "xi43<5>v"
"I43<4>v" "xi43<4>v"
"I43<3>v" "xi43<3>v"
"I43<2>v" "xi43<2>v"
"I43<1>v" "xi43<1>v"
"I43<0>v" "xi43<0>v"
"I42<15>v" "xi42<15>v"
"I42<14>v" "xi42<14>v"
"I42<13>v" "xi42<13>v"
"I42<12>v" "xi42<12>v"
"I42<11>v" "xi42<11>v"
"I42<10>v" "xi42<10>v"
"I42<9>v" "xi42<9>v"
"I42<8>v" "xi42<8>v"
"I42<7>v" "xi42<7>v"
"I42<6>v" "xi42<6>v"
"I42<5>v" "xi42<5>v"
"I42<4>v" "xi42<4>v"
"I42<3>v" "xi42<3>v"
"I42<2>v" "xi42<2>v"
"I42<1>v" "xi42<1>v"
"I42<0>v" "xi42<0>v"
"I41<15>v" "xi41<15>v"
"I41<14>v" "xi41<14>v"
"I41<13>v" "xi41<13>v"
"I41<12>v" "xi41<12>v"
"I41<11>v" "xi41<11>v"
"I41<10>v" "xi41<10>v"
"I41<9>v" "xi41<9>v"
"I41<8>v" "xi41<8>v"
"I41<7>v" "xi41<7>v"
"I41<6>v" "xi41<6>v"
"I41<5>v" "xi41<5>v"
"I41<4>v" "xi41<4>v"
"I41<3>v" "xi41<3>v"
"I41<2>v" "xi41<2>v"
"I41<1>v" "xi41<1>v"
"I41<0>v" "xi41<0>v"
"I40<15>v" "xi40<15>v"
"I40<14>v" "xi40<14>v"
"I40<13>v" "xi40<13>v"
"I40<12>v" "xi40<12>v"
"I40<11>v" "xi40<11>v"
"I40<10>v" "xi40<10>v"
"I40<9>v" "xi40<9>v"
"I40<8>v" "xi40<8>v"
"I40<7>v" "xi40<7>v"
"I40<6>v" "xi40<6>v"
"I40<5>v" "xi40<5>v"
"I40<4>v" "xi40<4>v"
"I40<3>v" "xi40<3>v"
"I40<2>v" "xi40<2>v"
"I40<1>v" "xi40<1>v"
"I40<0>v" "xi40<0>v"
"I39<15>v" "xi39<15>v"
"I39<14>v" "xi39<14>v"
"I39<13>v" "xi39<13>v"
"I39<12>v" "xi39<12>v"
"I39<11>v" "xi39<11>v"
"I39<10>v" "xi39<10>v"
"I39<9>v" "xi39<9>v"
"I39<8>v" "xi39<8>v"
"I39<7>v" "xi39<7>v"
"I39<6>v" "xi39<6>v"
"I39<5>v" "xi39<5>v"
"I39<4>v" "xi39<4>v"
"I39<3>v" "xi39<3>v"
"I39<2>v" "xi39<2>v"
"I39<1>v" "xi39<1>v"
"I39<0>v" "xi39<0>v"
"I38<15>v" "xi38<15>v"
"I38<14>v" "xi38<14>v"
"I38<13>v" "xi38<13>v"
"I38<12>v" "xi38<12>v"
"I38<11>v" "xi38<11>v"
"I38<10>v" "xi38<10>v"
"I38<9>v" "xi38<9>v"
"I38<8>v" "xi38<8>v"
"I38<7>v" "xi38<7>v"
"I38<6>v" "xi38<6>v"
"I38<5>v" "xi38<5>v"
"I38<4>v" "xi38<4>v"
"I38<3>v" "xi38<3>v"
"I38<2>v" "xi38<2>v"
"I38<1>v" "xi38<1>v"
"I38<0>v" "xi38<0>v"
"I37<15>v" "xi37<15>v"
"I37<14>v" "xi37<14>v"
"I37<13>v" "xi37<13>v"
"I37<12>v" "xi37<12>v"
"I37<11>v" "xi37<11>v"
"I37<10>v" "xi37<10>v"
"I37<9>v" "xi37<9>v"
"I37<8>v" "xi37<8>v"
"I37<7>v" "xi37<7>v"
"I37<6>v" "xi37<6>v"
"I37<5>v" "xi37<5>v"
"I37<4>v" "xi37<4>v"
"I37<3>v" "xi37<3>v"
"I37<2>v" "xi37<2>v"
"I37<1>v" "xi37<1>v"
"I37<0>v" "xi37<0>v"
"I36<15>v" "xi36<15>v"
"I36<14>v" "xi36<14>v"
"I36<13>v" "xi36<13>v"
"I36<12>v" "xi36<12>v"
"I36<11>v" "xi36<11>v"
"I36<10>v" "xi36<10>v"
"I36<9>v" "xi36<9>v"
"I36<8>v" "xi36<8>v"
"I36<7>v" "xi36<7>v"
"I36<6>v" "xi36<6>v"
"I36<5>v" "xi36<5>v"
"I36<4>v" "xi36<4>v"
"I36<3>v" "xi36<3>v"
"I36<2>v" "xi36<2>v"
"I36<1>v" "xi36<1>v"
"I36<0>v" "xi36<0>v"
"I35<15>v" "xi35<15>v"
"I35<14>v" "xi35<14>v"
"I35<13>v" "xi35<13>v"
"I35<12>v" "xi35<12>v"
"I35<11>v" "xi35<11>v"
"I35<10>v" "xi35<10>v"
"I35<9>v" "xi35<9>v"
"I35<8>v" "xi35<8>v"
"I35<7>v" "xi35<7>v"
"I35<6>v" "xi35<6>v"
"I35<5>v" "xi35<5>v"
"I35<4>v" "xi35<4>v"
"I35<3>v" "xi35<3>v"
"I35<2>v" "xi35<2>v"
"I35<1>v" "xi35<1>v"
"I35<0>v" "xi35<0>v"
"I34<15>v" "xi34<15>v"
"I34<14>v" "xi34<14>v"
"I34<13>v" "xi34<13>v"
"I34<12>v" "xi34<12>v"
"I34<11>v" "xi34<11>v"
"I34<10>v" "xi34<10>v"
"I34<9>v" "xi34<9>v"
"I34<8>v" "xi34<8>v"
"I34<7>v" "xi34<7>v"
"I34<6>v" "xi34<6>v"
"I34<5>v" "xi34<5>v"
"I34<4>v" "xi34<4>v"
"I34<3>v" "xi34<3>v"
"I34<2>v" "xi34<2>v"
"I34<1>v" "xi34<1>v"
"I34<0>v" "xi34<0>v"
"I33<15>v" "xi33<15>v"
"I33<14>v" "xi33<14>v"
"I33<13>v" "xi33<13>v"
"I33<12>v" "xi33<12>v"
"I33<11>v" "xi33<11>v"
"I33<10>v" "xi33<10>v"
"I33<9>v" "xi33<9>v"
"I33<8>v" "xi33<8>v"
"I33<7>v" "xi33<7>v"
"I33<6>v" "xi33<6>v"
"I33<5>v" "xi33<5>v"
"I33<4>v" "xi33<4>v"
"I33<3>v" "xi33<3>v"
"I33<2>v" "xi33<2>v"
"I33<1>v" "xi33<1>v"
"I33<0>v" "xi33<0>v"
"I32<15>v" "xi32<15>v"
"I32<14>v" "xi32<14>v"
"I32<13>v" "xi32<13>v"
"I32<12>v" "xi32<12>v"
"I32<11>v" "xi32<11>v"
"I32<10>v" "xi32<10>v"
"I32<9>v" "xi32<9>v"
"I32<8>v" "xi32<8>v"
"I32<7>v" "xi32<7>v"
"I32<6>v" "xi32<6>v"
"I32<5>v" "xi32<5>v"
"I32<4>v" "xi32<4>v"
"I32<3>v" "xi32<3>v"
"I32<2>v" "xi32<2>v"
"I32<1>v" "xi32<1>v"
"I32<0>v" "xi32<0>v"
"I31<15>v" "xi31<15>v"
"I31<14>v" "xi31<14>v"
"I31<13>v" "xi31<13>v"
"I31<12>v" "xi31<12>v"
"I31<11>v" "xi31<11>v"
"I31<10>v" "xi31<10>v"
"I31<9>v" "xi31<9>v"
"I31<8>v" "xi31<8>v"
"I31<7>v" "xi31<7>v"
"I31<6>v" "xi31<6>v"
"I31<5>v" "xi31<5>v"
"I31<4>v" "xi31<4>v"
"I31<3>v" "xi31<3>v"
"I31<2>v" "xi31<2>v"
"I31<1>v" "xi31<1>v"
"I31<0>v" "xi31<0>v"
"I30<15>v" "xi30<15>v"
"I30<14>v" "xi30<14>v"
"I30<13>v" "xi30<13>v"
"I30<12>v" "xi30<12>v"
"I30<11>v" "xi30<11>v"
"I30<10>v" "xi30<10>v"
"I30<9>v" "xi30<9>v"
"I30<8>v" "xi30<8>v"
"I30<7>v" "xi30<7>v"
"I30<6>v" "xi30<6>v"
"I30<5>v" "xi30<5>v"
"I30<4>v" "xi30<4>v"
"I30<3>v" "xi30<3>v"
"I30<2>v" "xi30<2>v"
"I30<1>v" "xi30<1>v"
"I30<0>v" "xi30<0>v"
"I29<15>v" "xi29<15>v"
"I29<14>v" "xi29<14>v"
"I29<13>v" "xi29<13>v"
"I29<12>v" "xi29<12>v"
"I29<11>v" "xi29<11>v"
"I29<10>v" "xi29<10>v"
"I29<9>v" "xi29<9>v"
"I29<8>v" "xi29<8>v"
"I29<7>v" "xi29<7>v"
"I29<6>v" "xi29<6>v"
"I29<5>v" "xi29<5>v"
"I29<4>v" "xi29<4>v"
"I29<3>v" "xi29<3>v"
"I29<2>v" "xi29<2>v"
"I29<1>v" "xi29<1>v"
"I29<0>v" "xi29<0>v"
"I28<15>v" "xi28<15>v"
"I28<14>v" "xi28<14>v"
"I28<13>v" "xi28<13>v"
"I28<12>v" "xi28<12>v"
"I28<11>v" "xi28<11>v"
"I28<10>v" "xi28<10>v"
"I28<9>v" "xi28<9>v"
"I28<8>v" "xi28<8>v"
"I28<7>v" "xi28<7>v"
"I28<6>v" "xi28<6>v"
"I28<5>v" "xi28<5>v"
"I28<4>v" "xi28<4>v"
"I28<3>v" "xi28<3>v"
"I28<2>v" "xi28<2>v"
"I28<1>v" "xi28<1>v"
"I28<0>v" "xi28<0>v"
"I27<15>v" "xi27<15>v"
"I27<14>v" "xi27<14>v"
"I27<13>v" "xi27<13>v"
"I27<12>v" "xi27<12>v"
"I27<11>v" "xi27<11>v"
"I27<10>v" "xi27<10>v"
"I27<9>v" "xi27<9>v"
"I27<8>v" "xi27<8>v"
"I27<7>v" "xi27<7>v"
"I27<6>v" "xi27<6>v"
"I27<5>v" "xi27<5>v"
"I27<4>v" "xi27<4>v"
"I27<3>v" "xi27<3>v"
"I27<2>v" "xi27<2>v"
"I27<1>v" "xi27<1>v"
"I27<0>v" "xi27<0>v"
"I26<15>v" "xi26<15>v"
"I26<14>v" "xi26<14>v"
"I26<13>v" "xi26<13>v"
"I26<12>v" "xi26<12>v"
"I26<11>v" "xi26<11>v"
"I26<10>v" "xi26<10>v"
"I26<9>v" "xi26<9>v"
"I26<8>v" "xi26<8>v"
"I26<7>v" "xi26<7>v"
"I26<6>v" "xi26<6>v"
"I26<5>v" "xi26<5>v"
"I26<4>v" "xi26<4>v"
"I26<3>v" "xi26<3>v"
"I26<2>v" "xi26<2>v"
"I26<1>v" "xi26<1>v"
"I26<0>v" "xi26<0>v"
"I25<15>v" "xi25<15>v"
"I25<14>v" "xi25<14>v"
"I25<13>v" "xi25<13>v"
"I25<12>v" "xi25<12>v"
"I25<11>v" "xi25<11>v"
"I25<10>v" "xi25<10>v"
"I25<9>v" "xi25<9>v"
"I25<8>v" "xi25<8>v"
"I25<7>v" "xi25<7>v"
"I25<6>v" "xi25<6>v"
"I25<5>v" "xi25<5>v"
"I25<4>v" "xi25<4>v"
"I25<3>v" "xi25<3>v"
"I25<2>v" "xi25<2>v"
"I25<1>v" "xi25<1>v"
"I25<0>v" "xi25<0>v"
"I24<15>v" "xi24<15>v"
"I24<14>v" "xi24<14>v"
"I24<13>v" "xi24<13>v"
"I24<12>v" "xi24<12>v"
"I24<11>v" "xi24<11>v"
"I24<10>v" "xi24<10>v"
"I24<9>v" "xi24<9>v"
"I24<8>v" "xi24<8>v"
"I24<7>v" "xi24<7>v"
"I24<6>v" "xi24<6>v"
"I24<5>v" "xi24<5>v"
"I24<4>v" "xi24<4>v"
"I24<3>v" "xi24<3>v"
"I24<2>v" "xi24<2>v"
"I24<1>v" "xi24<1>v"
"I24<0>v" "xi24<0>v"
"I10<15>v" "xi10<15>v"
"I10<14>v" "xi10<14>v"
"I10<13>v" "xi10<13>v"
"I10<12>v" "xi10<12>v"
"I10<11>v" "xi10<11>v"
"I10<10>v" "xi10<10>v"
"I10<9>v" "xi10<9>v"
"I10<8>v" "xi10<8>v"
"I10<7>v" "xi10<7>v"
"I10<6>v" "xi10<6>v"
"I10<5>v" "xi10<5>v"
"I10<4>v" "xi10<4>v"
"I10<3>v" "xi10<3>v"
"I10<2>v" "xi10<2>v"
"I10<1>v" "xi10<1>v"
"I10<0>v" "xi10<0>v"
"I9<15>v" "xi9<15>v"
"I9<14>v" "xi9<14>v"
"I9<13>v" "xi9<13>v"
"I9<12>v" "xi9<12>v"
"I9<11>v" "xi9<11>v"
"I9<10>v" "xi9<10>v"
"I9<9>v" "xi9<9>v"
"I9<8>v" "xi9<8>v"
"I9<7>v" "xi9<7>v"
"I9<6>v" "xi9<6>v"
"I9<5>v" "xi9<5>v"
"I9<4>v" "xi9<4>v"
"I9<3>v" "xi9<3>v"
"I9<2>v" "xi9<2>v"
"I9<1>v" "xi9<1>v"
"I9<0>v" "xi9<0>v"
"I4<15>v" "xi4<15>v"
"I4<14>v" "xi4<14>v"
"I4<13>v" "xi4<13>v"
"I4<12>v" "xi4<12>v"
"I4<11>v" "xi4<11>v"
"I4<10>v" "xi4<10>v"
"I4<9>v" "xi4<9>v"
"I4<8>v" "xi4<8>v"
"I4<7>v" "xi4<7>v"
"I4<6>v" "xi4<6>v"
"I4<5>v" "xi4<5>v"
"I4<4>v" "xi4<4>v"
"I4<3>v" "xi4<3>v"
"I4<2>v" "xi4<2>v"
"I4<1>v" "xi4<1>v"
"I4<0>v" "xi4<0>v"
"I3<15>v" "xi3<15>v"
"I3<14>v" "xi3<14>v"
"I3<13>v" "xi3<13>v"
"I3<12>v" "xi3<12>v"
"I3<11>v" "xi3<11>v"
"I3<10>v" "xi3<10>v"
"I3<9>v" "xi3<9>v"
"I3<8>v" "xi3<8>v"
"I3<7>v" "xi3<7>v"
"I3<6>v" "xi3<6>v"
"I3<5>v" "xi3<5>v"
"I3<4>v" "xi3<4>v"
"I3<3>v" "xi3<3>v"
"I3<2>v" "xi3<2>v"
"I3<1>v" "xi3<1>v"
"I3<0>v" "xi3<0>v"
"I23<15>v" "xi23<15>v"
"I45<15>n I45<14>n I45<13>n I45<12>n I45<11>n I45<10>n I45<9>n I45<8>n I45<7>n I45<6>n I45<5>n I45<4>n I45<3>n I45<2>n I45<1>n I45<0>n I44<15>n I44<14>n I44<13>n I44<12>n I44<11>n I44<10>n I44<9>n I44<8>n I44<7>n I44<6>n I44<5>n I44<4>n I44<3>n I44<2>n I44<1>n I44<0>n I43<15>n I43<14>n I43<13>n I43<12>n I43<11>n I43<10>n I43<9>n I43<8>n I43<7>n I43<6>n I43<5>n I43<4>n I43<3>n I43<2>n I43<1>n I43<0>n I42<15>n I42<14>n I42<13>n I42<12>n I42<11>n I42<10>n I42<9>n I42<8>n I42<7>n I42<6>n I42<5>n I42<4>n I42<3>n I42<2>n I42<1>n I42<0>n I41<15>n I41<14>n I41<13>n I41<12>n I41<11>n I41<10>n I41<9>n I41<8>n I41<7>n I41<6>n I41<5>n I41<4>n I41<3>n I41<2>n I41<1>n I41<0>n I40<15>n I40<14>n I40<13>n I40<12>n I40<11>n I40<10>n I40<9>n I40<8>n I40<7>n I40<6>n I40<5>n I40<4>n I40<3>n I40<2>n I40<1>n I40<0>n I39<15>n I39<14>n I39<13>n I39<12>n I39<11>n I39<10>n I39<9>n I39<8>n I39<7>n I39<6>n I39<5>n I39<4>n I39<3>n I39<2>n I39<1>n I39<0>n I38<15>n I38<14>n I38<13>n I38<12>n I38<11>n I38<10>n I38<9>n I38<8>n I38<7>n I38<6>n I38<5>n I38<4>n I38<3>n I38<2>n I38<1>n I38<0>n I37<15>n I37<14>n I37<13>n I37<12>n I37<11>n I37<10>n I37<9>n I37<8>n I37<7>n I37<6>n I37<5>n I37<4>n I37<3>n I37<2>n I37<1>n I37<0>n I36<15>n I36<14>n I36<13>n I36<12>n I36<11>n I36<10>n I36<9>n I36<8>n I36<7>n I36<6>n I36<5>n I36<4>n I36<3>n I36<2>n I36<1>n I36<0>n I35<15>n I35<14>n I35<13>n I35<12>n I35<11>n I35<10>n I35<9>n I35<8>n I35<7>n I35<6>n I35<5>n I35<4>n I35<3>n I35<2>n I35<1>n I35<0>n I34<15>n I34<14>n I34<13>n I34<12>n I34<11>n I34<10>n I34<9>n I34<8>n I34<7>n I34<6>n I34<5>n I34<4>n I34<3>n I34<2>n I34<1>n I34<0>n I33<15>n I33<14>n I33<13>n I33<12>n I33<11>n I33<10>n I33<9>n I33<8>n I33<7>n I33<6>n I33<5>n I33<4>n I33<3>n I33<2>n I33<1>n I33<0>n I32<15>n I32<14>n I32<13>n I32<12>n I32<11>n I32<10>n I32<9>n I32<8>n I32<7>n I32<6>n I32<5>n I32<4>n I32<3>n I32<2>n I32<1>n I32<0>n I31<15>n I31<14>n I31<13>n I31<12>n I31<11>n I31<10>n I31<9>n I31<8>n I31<7>n I31<6>n I31<5>n I31<4>n I31<3>n I31<2>n I31<1>n I31<0>n I30<15>n I30<14>n I30<13>n I30<12>n I30<11>n I30<10>n I30<9>n I30<8>n I30<7>n I30<6>n I30<5>n I30<4>n I30<3>n I30<2>n I30<1>n I30<0>n I29<15>n I29<14>n I29<13>n I29<12>n I29<11>n I29<10>n I29<9>n I29<8>n I29<7>n I29<6>n I29<5>n I29<4>n I29<3>n I29<2>n I29<1>n I29<0>n I28<15>n I28<14>n I28<13>n I28<12>n I28<11>n I28<10>n I28<9>n I28<8>n I28<7>n I28<6>n I28<5>n I28<4>n I28<3>n I28<2>n I28<1>n I28<0>n I27<15>n I27<14>n I27<13>n I27<12>n I27<11>n I27<10>n I27<9>n I27<8>n I27<7>n I27<6>n I27<5>n I27<4>n I27<3>n I27<2>n I27<1>n I27<0>n I26<15>n I26<14>n I26<13>n I26<12>n I26<11>n I26<10>n I26<9>n I26<8>n I26<7>n I26<6>n I26<5>n I26<4>n I26<3>n I26<2>n I26<1>n I26<0>n I25<15>n I25<14>n I25<13>n I25<12>n I25<11>n I25<10>n I25<9>n I25<8>n I25<7>n I25<6>n I25<5>n I25<4>n I25<3>n I25<2>n I25<1>n I25<0>n I24<15>n I24<14>n I24<13>n I24<12>n I24<11>n I24<10>n I24<9>n I24<8>n I24<7>n I24<6>n I24<5>n I24<4>n I24<3>n I24<2>n I24<1>n I24<0>n I10<15>n I10<14>n I10<13>n I10<12>n I10<11>n I10<10>n I10<9>n I10<8>n I10<7>n I10<6>n I10<5>n I10<4>n I10<3>n I10<2>n I10<1>n I10<0>n I9<15>n I9<14>n I9<13>n I9<12>n I9<11>n I9<10>n I9<9>n I9<8>n I9<7>n I9<6>n I9<5>n I9<4>n I9<3>n I9<2>n I9<1>n I9<0>n I4<15>n I4<14>n I4<13>n I4<12>n I4<11>n I4<10>n I4<9>n I4<8>n I4<7>n I4<6>n I4<5>n I4<4>n I4<3>n I4<2>n I4<1>n I4<0>n I3<15>n I3<14>n I3<13>n I3<12>n I3<11>n I3<10>n I3<9>n I3<8>n I3<7>n I3<6>n I3<5>n I3<4>n I3<3>n I3<2>n I3<1>n I3<0>n" "TBUF_X2"
"I23<14>v" "xi23<14>v"
"I23<13>v" "xi23<13>v"
"I23<12>v" "xi23<12>v"
"I23<11>v" "xi23<11>v"
"I23<10>v" "xi23<10>v"
"I23<9>v" "xi23<9>v"
"I23<8>v" "xi23<8>v"
"I23<7>v" "xi23<7>v"
"I23<6>v" "xi23<6>v"
"I23<5>v" "xi23<5>v"
"I23<4>v" "xi23<4>v"
"I23<3>v" "xi23<3>v"
"I23<2>v" "xi23<2>v"
"I23<1>v" "xi23<1>v"
"I23<0>v" "xi23<0>v"
"I22<15>v" "xi22<15>v"
"I22<14>v" "xi22<14>v"
"I22<13>v" "xi22<13>v"
"I22<12>v" "xi22<12>v"
"I22<11>v" "xi22<11>v"
"I22<10>v" "xi22<10>v"
"I22<9>v" "xi22<9>v"
"I22<8>v" "xi22<8>v"
"I22<7>v" "xi22<7>v"
"I22<6>v" "xi22<6>v"
"I22<5>v" "xi22<5>v"
"I22<4>v" "xi22<4>v"
"I22<3>v" "xi22<3>v"
"I22<2>v" "xi22<2>v"
"I22<1>v" "xi22<1>v"
"I22<0>v" "xi22<0>v"
"I21<15>v" "xi21<15>v"
"I21<14>v" "xi21<14>v"
"I21<13>v" "xi21<13>v"
"I21<12>v" "xi21<12>v"
"I21<11>v" "xi21<11>v"
"I21<10>v" "xi21<10>v"
"I21<9>v" "xi21<9>v"
"I21<8>v" "xi21<8>v"
"I21<7>v" "xi21<7>v"
"I21<6>v" "xi21<6>v"
"I21<5>v" "xi21<5>v"
"I21<4>v" "xi21<4>v"
"I21<3>v" "xi21<3>v"
"I21<2>v" "xi21<2>v"
"I21<1>v" "xi21<1>v"
"I21<0>v" "xi21<0>v"
"I20<15>v" "xi20<15>v"
"I20<14>v" "xi20<14>v"
"I20<13>v" "xi20<13>v"
"I20<12>v" "xi20<12>v"
"I20<11>v" "xi20<11>v"
"I20<10>v" "xi20<10>v"
"I20<9>v" "xi20<9>v"
"I20<8>v" "xi20<8>v"
"I20<7>v" "xi20<7>v"
"I20<6>v" "xi20<6>v"
"I20<5>v" "xi20<5>v"
"I20<4>v" "xi20<4>v"
"I20<3>v" "xi20<3>v"
"I20<2>v" "xi20<2>v"
"I20<1>v" "xi20<1>v"
"I20<0>v" "xi20<0>v"
"I19<15>v" "xi19<15>v"
"I19<14>v" "xi19<14>v"
"I19<13>v" "xi19<13>v"
"I19<12>v" "xi19<12>v"
"I19<11>v" "xi19<11>v"
"I19<10>v" "xi19<10>v"
"I19<9>v" "xi19<9>v"
"I19<8>v" "xi19<8>v"
"I19<7>v" "xi19<7>v"
"I19<6>v" "xi19<6>v"
"I19<5>v" "xi19<5>v"
"I19<4>v" "xi19<4>v"
"I19<3>v" "xi19<3>v"
"I19<2>v" "xi19<2>v"
"I19<1>v" "xi19<1>v"
"I19<0>v" "xi19<0>v"
"I18<15>v" "xi18<15>v"
"I18<14>v" "xi18<14>v"
"I18<13>v" "xi18<13>v"
"I18<12>v" "xi18<12>v"
"I18<11>v" "xi18<11>v"
"I18<10>v" "xi18<10>v"
"I18<9>v" "xi18<9>v"
"I18<8>v" "xi18<8>v"
"I18<7>v" "xi18<7>v"
"I18<6>v" "xi18<6>v"
"I18<5>v" "xi18<5>v"
"I18<4>v" "xi18<4>v"
"I18<3>v" "xi18<3>v"
"I18<2>v" "xi18<2>v"
"I18<1>v" "xi18<1>v"
"I18<0>v" "xi18<0>v"
"I17<15>v" "xi17<15>v"
"I17<14>v" "xi17<14>v"
"I17<13>v" "xi17<13>v"
"I17<12>v" "xi17<12>v"
"I17<11>v" "xi17<11>v"
"I17<10>v" "xi17<10>v"
"I17<9>v" "xi17<9>v"
"I17<8>v" "xi17<8>v"
"I17<7>v" "xi17<7>v"
"I17<6>v" "xi17<6>v"
"I17<5>v" "xi17<5>v"
"I17<4>v" "xi17<4>v"
"I17<3>v" "xi17<3>v"
"I17<2>v" "xi17<2>v"
"I17<1>v" "xi17<1>v"
"I17<0>v" "xi17<0>v"
"I16<15>v" "xi16<15>v"
"I16<14>v" "xi16<14>v"
"I16<13>v" "xi16<13>v"
"I16<12>v" "xi16<12>v"
"I16<11>v" "xi16<11>v"
"I16<10>v" "xi16<10>v"
"I16<9>v" "xi16<9>v"
"I16<8>v" "xi16<8>v"
"I16<7>v" "xi16<7>v"
"I16<6>v" "xi16<6>v"
"I16<5>v" "xi16<5>v"
"I16<4>v" "xi16<4>v"
"I16<3>v" "xi16<3>v"
"I16<2>v" "xi16<2>v"
"I16<1>v" "xi16<1>v"
"I16<0>v" "xi16<0>v"
"I15<15>v" "xi15<15>v"
"I15<14>v" "xi15<14>v"
"I15<13>v" "xi15<13>v"
"I15<12>v" "xi15<12>v"
"I15<11>v" "xi15<11>v"
"I15<10>v" "xi15<10>v"
"I15<9>v" "xi15<9>v"
"I15<8>v" "xi15<8>v"
"I15<7>v" "xi15<7>v"
"I15<6>v" "xi15<6>v"
"I15<5>v" "xi15<5>v"
"I15<4>v" "xi15<4>v"
"I15<3>v" "xi15<3>v"
"I15<2>v" "xi15<2>v"
"I15<1>v" "xi15<1>v"
"I15<0>v" "xi15<0>v"
"I14<15>v" "xi14<15>v"
"I14<14>v" "xi14<14>v"
"I14<13>v" "xi14<13>v"
"I14<12>v" "xi14<12>v"
"I14<11>v" "xi14<11>v"
"I14<10>v" "xi14<10>v"
"I14<9>v" "xi14<9>v"
"I14<8>v" "xi14<8>v"
"I14<7>v" "xi14<7>v"
"I14<6>v" "xi14<6>v"
"I14<5>v" "xi14<5>v"
"I14<4>v" "xi14<4>v"
"I14<3>v" "xi14<3>v"
"I14<2>v" "xi14<2>v"
"I14<1>v" "xi14<1>v"
"I14<0>v" "xi14<0>v"
"I13<15>v" "xi13<15>v"
"I13<14>v" "xi13<14>v"
"I13<13>v" "xi13<13>v"
"I13<12>v" "xi13<12>v"
"I13<11>v" "xi13<11>v"
"I13<10>v" "xi13<10>v"
"I13<9>v" "xi13<9>v"
"I13<8>v" "xi13<8>v"
"I13<7>v" "xi13<7>v"
"I13<6>v" "xi13<6>v"
"I13<5>v" "xi13<5>v"
"I13<4>v" "xi13<4>v"
"I13<3>v" "xi13<3>v"
"I13<2>v" "xi13<2>v"
"I13<1>v" "xi13<1>v"
"I13<0>v" "xi13<0>v"
"I8<15>v" "xi8<15>v"
"I8<14>v" "xi8<14>v"
"I8<13>v" "xi8<13>v"
"I8<12>v" "xi8<12>v"
"I8<11>v" "xi8<11>v"
"I8<10>v" "xi8<10>v"
"I8<9>v" "xi8<9>v"
"I8<8>v" "xi8<8>v"
"I8<7>v" "xi8<7>v"
"I8<6>v" "xi8<6>v"
"I8<5>v" "xi8<5>v"
"I8<4>v" "xi8<4>v"
"I8<3>v" "xi8<3>v"
"I8<2>v" "xi8<2>v"
"I8<1>v" "xi8<1>v"
"I8<0>v" "xi8<0>v"
"I7<15>v" "xi7<15>v"
"I7<14>v" "xi7<14>v"
"I7<13>v" "xi7<13>v"
"I7<12>v" "xi7<12>v"
"I7<11>v" "xi7<11>v"
"I7<10>v" "xi7<10>v"
"I7<9>v" "xi7<9>v"
"I7<8>v" "xi7<8>v"
"I7<7>v" "xi7<7>v"
"I7<6>v" "xi7<6>v"
"I7<5>v" "xi7<5>v"
"I7<4>v" "xi7<4>v"
"I7<3>v" "xi7<3>v"
"I7<2>v" "xi7<2>v"
"I7<1>v" "xi7<1>v"
"I7<0>v" "xi7<0>v"
"I23<15>n I23<14>n I23<13>n I23<12>n I23<11>n I23<10>n I23<9>n I23<8>n I23<7>n I23<6>n I23<5>n I23<4>n I23<3>n I23<2>n I23<1>n I23<0>n I22<15>n I22<14>n I22<13>n I22<12>n I22<11>n I22<10>n I22<9>n I22<8>n I22<7>n I22<6>n I22<5>n I22<4>n I22<3>n I22<2>n I22<1>n I22<0>n I21<15>n I21<14>n I21<13>n I21<12>n I21<11>n I21<10>n I21<9>n I21<8>n I21<7>n I21<6>n I21<5>n I21<4>n I21<3>n I21<2>n I21<1>n I21<0>n I20<15>n I20<14>n I20<13>n I20<12>n I20<11>n I20<10>n I20<9>n I20<8>n I20<7>n I20<6>n I20<5>n I20<4>n I20<3>n I20<2>n I20<1>n I20<0>n I19<15>n I19<14>n I19<13>n I19<12>n I19<11>n I19<10>n I19<9>n I19<8>n I19<7>n I19<6>n I19<5>n I19<4>n I19<3>n I19<2>n I19<1>n I19<0>n I18<15>n I18<14>n I18<13>n I18<12>n I18<11>n I18<10>n I18<9>n I18<8>n I18<7>n I18<6>n I18<5>n I18<4>n I18<3>n I18<2>n I18<1>n I18<0>n I17<15>n I17<14>n I17<13>n I17<12>n I17<11>n I17<10>n I17<9>n I17<8>n I17<7>n I17<6>n I17<5>n I17<4>n I17<3>n I17<2>n I17<1>n I17<0>n I16<15>n I16<14>n I16<13>n I16<12>n I16<11>n I16<10>n I16<9>n I16<8>n I16<7>n I16<6>n I16<5>n I16<4>n I16<3>n I16<2>n I16<1>n I16<0>n I15<15>n I15<14>n I15<13>n I15<12>n I15<11>n I15<10>n I15<9>n I15<8>n I15<7>n I15<6>n I15<5>n I15<4>n I15<3>n I15<2>n I15<1>n I15<0>n I14<15>n I14<14>n I14<13>n I14<12>n I14<11>n I14<10>n I14<9>n I14<8>n I14<7>n I14<6>n I14<5>n I14<4>n I14<3>n I14<2>n I14<1>n I14<0>n I13<15>n I13<14>n I13<13>n I13<12>n I13<11>n I13<10>n I13<9>n I13<8>n I13<7>n I13<6>n I13<5>n I13<4>n I13<3>n I13<2>n I13<1>n I13<0>n I8<15>n I8<14>n I8<13>n I8<12>n I8<11>n I8<10>n I8<9>n I8<8>n I8<7>n I8<6>n I8<5>n I8<4>n I8<3>n I8<2>n I8<1>n I8<0>n I7<15>n I7<14>n I7<13>n I7<12>n I7<11>n I7<10>n I7<9>n I7<8>n I7<7>n I7<6>n I7<5>n I7<4>n I7<3>n I7<2>n I7<1>n I7<0>n" "DLH_X1"
