HEADER
"PSFversion" "1.00"
"Dv" "dv"
"Gv" "gv"
"Qv" "qv"
