HEADER
"PSFversion" "1.00"
"Dv" "dv"
"GNv" "gnv"
"Qv" "qv"
