HEADER
"PSFversion" "1.00"
"Av" "av"
"ZNv" "znv"
