HEADER
"PSFversion" "1.00"
"__NEXT_FILE__" "cad5_13_16_REGFILE_schematic"
