HEADER
"PSFversion" "1.00"
"M_i_0v" "m_i_0v"
"M_i_1v" "m_i_1v"
"M_i_0n" "analogLib_nmos4_hspiceD"
"M_i_1n" "analogLib_pmos4_hspiceD"
"VSS!v" "(FUNCTION (plus (root \"M_i_0/S\") (root \"M_i_0/B\")))v"
"VDD!v" "(FUNCTION (plus (root \"M_i_1/B\") (root \"M_i_1/S\")))v"
"ZNv" "(FUNCTION (plus (root \"M_i_0/D\") (root \"M_i_1/D\")))v"
"Av" "(FUNCTION (plus (root \"M_i_0/G\") (root \"M_i_1/G\")))v"
