HEADER
"PSFversion" "1.00"
"CKv" "ckv"
"CK_0v" "ck_0v"
"CK_1v" "ck_1v"
"R0_d0v" "r0_d0v"
"R1_d0v" "r1_d0v"
"wr_data_B<1>v" "wr_data_b<1>v"
"wr_data_B<0>v" "wr_data_b<0>v"
"R0_d1v" "r0_d1v"
"R1_d1v" "r1_d1v"
"VSS!v" "vss!v"
"VDD!v" "vdd!v"
