HEADER
"PSFversion" "1.00"
"__NEXT_FILE__" "T2BREG_LATCH"
