HEADER
"PSFversion" "1.00"
"B<15>v" "b<15>v"
"B<14>v" "b<14>v"
"B<13>v" "b<13>v"
"B<12>v" "b<12>v"
"B<11>v" "b<11>v"
"B<10>v" "b<10>v"
"B<9>v" "b<9>v"
"B<8>v" "b<8>v"
"B<7>v" "b<7>v"
"B<6>v" "b<6>v"
"B<5>v" "b<5>v"
"B<4>v" "b<4>v"
"B<3>v" "b<3>v"
"B<2>v" "b<2>v"
"B<1>v" "b<1>v"
"B<0>v" "b<0>v"
"Sv" "sv"
"A<15>v" "a<15>v"
"A<14>v" "a<14>v"
"A<13>v" "a<13>v"
"A<12>v" "a<12>v"
"A<11>v" "a<11>v"
"A<10>v" "a<10>v"
"A<9>v" "a<9>v"
"A<8>v" "a<8>v"
"A<7>v" "a<7>v"
"A<6>v" "a<6>v"
"A<5>v" "a<5>v"
"A<4>v" "a<4>v"
"A<3>v" "a<3>v"
"A<2>v" "a<2>v"
"A<1>v" "a<1>v"
"A<0>v" "a<0>v"
"ARITMETIC_OUT<15>v" "aritmetic_out<15>v"
"ARITMETIC_OUT<14>v" "aritmetic_out<14>v"
"ARITMETIC_OUT<13>v" "aritmetic_out<13>v"
"ARITMETIC_OUT<12>v" "aritmetic_out<12>v"
"ARITMETIC_OUT<11>v" "aritmetic_out<11>v"
"ARITMETIC_OUT<10>v" "aritmetic_out<10>v"
"ARITMETIC_OUT<9>v" "aritmetic_out<9>v"
"ARITMETIC_OUT<8>v" "aritmetic_out<8>v"
"ARITMETIC_OUT<7>v" "aritmetic_out<7>v"
"ARITMETIC_OUT<6>v" "aritmetic_out<6>v"
"ARITMETIC_OUT<5>v" "aritmetic_out<5>v"
"ARITMETIC_OUT<4>v" "aritmetic_out<4>v"
"ARITMETIC_OUT<3>v" "aritmetic_out<3>v"
"ARITMETIC_OUT<2>v" "aritmetic_out<2>v"
"ARITMETIC_OUT<1>v" "aritmetic_out<1>v"
"ARITMETIC_OUT<0>v" "aritmetic_out<0>v"
"COv" "cov"
"AN<15>v" "an<15>v"
"AN<14>v" "an<14>v"
"AN<13>v" "an<13>v"
"AN<12>v" "an<12>v"
"AN<11>v" "an<11>v"
"AN<10>v" "an<10>v"
"AN<9>v" "an<9>v"
"AN<8>v" "an<8>v"
"AN<7>v" "an<7>v"
"AN<6>v" "an<6>v"
"AN<5>v" "an<5>v"
"AN<4>v" "an<4>v"
"AN<3>v" "an<3>v"
"AN<2>v" "an<2>v"
"AN<1>v" "an<1>v"
"AN<0>v" "an<0>v"
"A_temp<15>v" "a_temp<15>v"
"A_temp<14>v" "a_temp<14>v"
"A_temp<13>v" "a_temp<13>v"
"A_temp<12>v" "a_temp<12>v"
"A_temp<11>v" "a_temp<11>v"
"A_temp<10>v" "a_temp<10>v"
"A_temp<9>v" "a_temp<9>v"
"A_temp<8>v" "a_temp<8>v"
"A_temp<7>v" "a_temp<7>v"
"A_temp<6>v" "a_temp<6>v"
"A_temp<5>v" "a_temp<5>v"
"A_temp<4>v" "a_temp<4>v"
"A_temp<3>v" "a_temp<3>v"
"A_temp<2>v" "a_temp<2>v"
"A_temp<1>v" "a_temp<1>v"
"A_temp<0>v" "a_temp<0>v"
