HEADER
"PSFversion" "1.00"
"I2v" "xi2v"
"I1v" "xi1v"
"I2n" "INVMUX2_X1"
"I0v" "xi0v"
"I1n I0n" "MUX2_X1"
"Av" "(FUNCTION (plus (root \"I0/A\")))v"
"Bv" "(FUNCTION (plus (root \"I0/B\")))v"
"Cv" "(FUNCTION (plus (root \"I1/A\")))v"
"Dv" "(FUNCTION (plus (root \"I1/B\")))v"
"S<1>v" "(FUNCTION (plus (root \"I2/S\")))v"
"S<0>v" "(FUNCTION (plus (root \"I0/S\") (root \"I1/S\")))v"
"ZNv" "(FUNCTION (plus (root \"I2/ZN\")))v"
