HEADER
"PSFversion" "1.00"
"Av" "av"
"Bv" "bv"
"Cv" "cv"
"Dv" "dv"
"S<1>v" "s<1>v"
"S<0>v" "s<0>v"
"ZNv" "znv"
